7
Lattice="50.0 0.0 0.0 0.0 50.0 0.0 0.0 0.0 50.0" Properties=species:S:1:pos:R:3:forces:R:3 energy=-6220.17266169723 label=C charge=-1 pbc="T T T"
C        1.23616947      -0.55806272      -0.15377871       1.80938348       3.25017948       2.66582150
C       -0.10999420       0.06141430       0.00389190      -2.46612692       0.21372249       0.14197693
O       -0.09383227       1.22082897       0.54744542      -0.93202276      -3.86614257      -1.95144741
O       -1.06522364      -0.70530570      -0.41388144       2.76312763       3.40655983       1.60114295
H        1.40064568      -1.45298203       0.26466035      -0.89732099      -3.54740334       1.96136167
H        1.99227537      -0.00046434       0.48077972      -0.83409546      -0.03787399      -1.67000209
H        1.58450361      -0.81105002      -1.07936823       0.55705502       0.58095811      -2.74885355
13
Lattice="50.0 0.0 0.0 0.0 50.0 0.0 0.0 0.0 50.0" Properties=species:S:1:pos:R:3:forces:R:3 energy=-6668.13444011321 label=C charge=1 pbc="T T T"
C        1.32232491      -1.19529777      -0.75603234      -3.14917387       0.70514919      -0.99579379
C       -0.28287893       0.36629239       0.14696294      -0.92538055      -3.99206337       0.66506963
N       -0.40971164       1.33855808       1.06910776      -4.35211278       1.55675782      -4.48641609
N        0.71070793      -0.55111974       0.28737801       0.23425933       6.01670560       6.30855988
N       -1.32843119      -0.06453740      -0.68410752       3.07544972       2.90325520      -1.57377570
H       -1.08645481       2.12952301       0.73017138       1.86122264      -2.69880284       1.51859868
H        0.30990162       1.75255310       1.56338859       1.69530739      -0.00453576       0.63540833
H        1.27348786      -0.18795366       1.13152506      -0.94243812      -1.84106943      -2.41942516
H       -0.87434410      -0.76265772      -1.51538222      -2.82056125       3.29659777       3.30431152
H       -1.92926026       0.81496983      -0.92994717       1.52951256      -3.38175391      -0.15340033
H        0.65134925      -0.77200832      -1.46454086       0.99138632      -1.21158233      -2.21808016
H        1.27968311      -2.20155626      -0.64620079      -0.45081916      -2.76655429      -0.08638027
H        2.26700154      -0.94002276      -0.95479738       3.25334776       1.41789636      -0.49867654
